# vtk DataFile Version 2.0
CalculiX or ABAQUS mesh
ASCII
DATASET UNSTRUCTURED_GRID
POINTS 1161 float
-25.0 0.0 0.216000006
-25.0 0.64379853 0.283665955
-25.0 1.25945997 0.483706504
-25.0 1.82007706 0.807378888
-25.0 2.30114794 1.24053705
-25.0 2.68164778 1.76425004
-25.0 2.94494653 2.35562897
-25.0 3.07953715 2.98882771
-25.0 3.07953715 3.63617229
-25.0 2.94494653 4.26937103
-25.0 2.68164778 4.8607502
-25.0 2.30114794 5.38446283
-25.0 1.82007706 5.81762123
-25.0 1.25945997 6.14129353
-25.0 0.64379853 6.34133387
-25.0 0.0 6.40899992
-23.333334 0.0 0.216000006
-23.333334 0.64379853 0.283665955
-23.333334 1.25945997 0.483706504
-23.333334 1.82007706 0.807378888
-23.333334 2.30114794 1.24053705
-23.333334 2.68164778 1.76425004
-23.333334 2.94494653 2.35562897
-23.333334 3.07953715 2.98882771
-23.333334 3.07953715 3.63617229
-23.333334 2.94494653 4.26937103
-23.333334 2.68164778 4.8607502
-23.333334 2.30114794 5.38446283
-23.333334 1.82007706 5.81762123
-23.333334 1.25945997 6.14129353
-23.333334 0.64379853 6.34133387
-23.333334 0.0 6.40899992
-21.666666 0.0 0.216000006
-21.666666 0.64379853 0.283665955
-21.666666 1.25945997 0.483706504
-21.666666 1.82007706 0.807378888
-21.666666 2.30114794 1.24053705
-21.666666 2.68164778 1.76425004
-21.666666 2.94494653 2.35562897
-21.666666 3.07953715 2.98882771
-21.666666 3.07953715 3.63617229
-21.666666 2.94494653 4.26937103
-21.666666 2.68164778 4.8607502
-21.666666 2.30114794 5.38446283
-21.666666 1.82007706 5.81762123
-21.666666 1.25945997 6.14129353
-21.666666 0.64379853 6.34133387
-21.666666 0.0 6.40899992
-20.0 0.0 0.216000006
-20.0 0.64379853 0.283665955
-20.0 1.25945997 0.483706504
-20.0 1.82007706 0.807378888
-20.0 2.30114794 1.24053705
-20.0 2.68164778 1.76425004
-20.0 2.94494653 2.35562897
-20.0 3.07953715 2.98882771
-20.0 3.07953715 3.63617229
-20.0 2.94494653 4.26937103
-20.0 2.68164778 4.8607502
-20.0 2.30114794 5.38446283
-20.0 1.82007706 5.81762123
-20.0 1.25945997 6.14129353
-20.0 0.64379853 6.34133387
-20.0 0.0 6.40899992
-18.333334 0.0 0.216000006
-18.333334 0.64379853 0.283665955
-18.333334 1.25945997 0.483706504
-18.333334 1.82007706 0.807378888
-18.333334 2.30114794 1.24053705
-18.333334 2.68164778 1.76425004
-18.333334 2.94494653 2.35562897
-18.333334 3.07953715 2.98882771
-18.333334 3.07953715 3.63617229
-18.333334 2.94494653 4.26937103
-18.333334 2.68164778 4.8607502
-18.333334 2.30114794 5.38446283
-18.333334 1.82007706 5.81762123
-18.333334 1.25945997 6.14129353
-18.333334 0.64379853 6.34133387
-18.333334 0.0 6.40899992
-16.666666 0.0 0.216000006
-16.666666 0.64379853 0.283665955
-16.666666 1.25945997 0.483706504
-16.666666 1.82007706 0.807378888
-16.666666 2.30114794 1.24053705
-16.666666 2.68164778 1.76425004
-16.666666 2.94494653 2.35562897
-16.666666 3.07953715 2.98882771
-16.666666 3.07953715 3.63617229
-16.666666 2.94494653 4.26937103
-16.666666 2.68164778 4.8607502
-16.666666 2.30114794 5.38446283
-16.666666 1.82007706 5.81762123
-16.666666 1.25945997 6.14129353
-16.666666 0.64379853 6.34133387
-16.666666 0.0 6.40899992
-15.0 0.0 0.216000006
-15.0 0.64379853 0.283665955
-15.0 1.25945997 0.483706504
-15.0 1.82007706 0.807378888
-15.0 2.30114794 1.24053705
-15.0 2.68164778 1.76425004
-15.0 2.94494653 2.35562897
-15.0 3.07953715 2.98882771
-15.0 3.07953715 3.63617229
-15.0 2.94494653 4.26937103
-15.0 2.68164778 4.8607502
-15.0 2.30114794 5.38446283
-15.0 1.82007706 5.81762123
-15.0 1.25945997 6.14129353
-15.0 0.64379853 6.34133387
-15.0 0.0 6.40899992
-13.333333 0.0 0.216000006
-13.333333 0.64379853 0.283665955
-13.333333 1.25945997 0.483706504
-13.333333 1.82007706 0.807378888
-13.333333 2.30114794 1.24053705
-13.333333 2.68164778 1.76425004
-13.333333 2.94494653 2.35562897
-13.333333 3.07953715 2.98882771
-13.333333 3.07953715 3.63617229
-13.333333 2.94494653 4.26937103
-13.333333 2.68164778 4.8607502
-13.333333 2.30114794 5.38446283
-13.333333 1.82007706 5.81762123
-13.333333 1.25945997 6.14129353
-13.333333 0.64379853 6.34133387
-13.333333 0.0 6.40899992
-11.666667 0.0 0.216000006
-11.666667 0.64379853 0.283665955
-11.666667 1.25945997 0.483706504
-11.666667 1.82007706 0.807378888
-11.666667 2.30114794 1.24053705
-11.666667 2.68164778 1.76425004
-11.666667 2.94494653 2.35562897
-11.666667 3.07953715 2.98882771
-11.666667 3.07953715 3.63617229
-11.666667 2.94494653 4.26937103
-11.666667 2.68164778 4.8607502
-11.666667 2.30114794 5.38446283
-11.666667 1.82007706 5.81762123
-11.666667 1.25945997 6.14129353
-11.666667 0.64379853 6.34133387
-11.666667 0.0 6.40899992
-10.0 0.0 0.216000006
-10.0 0.64379853 0.283665955
-10.0 1.25945997 0.483706504
-10.0 1.82007706 0.807378888
-10.0 2.30114794 1.24053705
-10.0 2.68164778 1.76425004
-10.0 2.94494653 2.35562897
-10.0 3.07953715 2.98882771
-10.0 3.07953715 3.63617229
-10.0 2.94494653 4.26937103
-10.0 2.68164778 4.8607502
-10.0 2.30114794 5.38446283
-10.0 1.82007706 5.81762123
-10.0 1.25945997 6.14129353
-10.0 0.64379853 6.34133387
-10.0 0.0 6.40899992
-9.28571415 0.0 0.216000006
-9.28571415 0.64379853 0.283665955
-9.28571415 1.25945997 0.483706504
-9.28571415 1.82007706 0.807378888
-9.28571415 2.30114794 1.24053705
-9.28571415 2.68164778 1.76425004
-9.28571415 2.94494653 2.35562897
-9.28571415 3.07953715 2.98882771
-9.28571415 3.07953715 3.63617229
-9.28571415 2.94494653 4.26937103
-9.28571415 2.68164778 4.8607502
-9.28571415 2.30114794 5.38446283
-9.28571415 1.82007706 5.81762123
-9.28571415 1.25945997 6.14129353
-9.28571415 0.64379853 6.34133387
-9.28571415 0.0 6.40899992
-8.5714283 0.0 0.216000006
-8.5714283 0.64379853 0.283665955
-8.5714283 1.25945997 0.483706504
-8.5714283 1.82007706 0.807378888
-8.5714283 2.30114794 1.24053705
-8.5714283 2.68164778 1.76425004
-8.5714283 2.94494653 2.35562897
-8.5714283 3.07953715 2.98882771
-8.5714283 3.07953715 3.63617229
-8.5714283 2.94494653 4.26937103
-8.5714283 2.68164778 4.8607502
-8.5714283 2.30114794 5.38446283
-8.5714283 1.82007706 5.81762123
-8.5714283 1.25945997 6.14129353
-8.5714283 0.64379853 6.34133387
-8.5714283 0.0 6.40899992
-7.85714293 0.0 0.216000006
-7.85714293 0.64379853 0.283665955
-7.85714293 1.25945997 0.483706504
-7.85714293 1.82007706 0.807378888
-7.85714293 2.30114794 1.24053705
-7.85714293 2.68164778 1.76425004
-7.85714293 2.94494653 2.35562897
-7.85714293 3.07953715 2.98882771
-7.85714293 3.07953715 3.63617229
-7.85714293 2.94494653 4.26937103
-7.85714293 2.68164778 4.8607502
-7.85714293 2.30114794 5.38446283
-7.85714293 1.82007706 5.81762123
-7.85714293 1.25945997 6.14129353
-7.85714293 0.64379853 6.34133387
-7.85714293 0.0 6.40899992
-7.14285707 0.0 0.216000006
-7.14285707 0.64379853 0.283665955
-7.14285707 1.25945997 0.483706504
-7.14285707 1.82007706 0.807378888
-7.14285707 2.30114794 1.24053705
-7.14285707 2.68164778 1.76425004
-7.14285707 2.94494653 2.35562897
-7.14285707 3.07953715 2.98882771
-7.14285707 3.07953715 3.63617229
-7.14285707 2.94494653 4.26937103
-7.14285707 2.68164778 4.8607502
-7.14285707 2.30114794 5.38446283
-7.14285707 1.82007706 5.81762123
-7.14285707 1.25945997 6.14129353
-7.14285707 0.64379853 6.34133387
-7.14285707 0.0 6.40899992
-6.42857122 0.0 0.216000006
-6.42857122 0.64379853 0.283665955
-6.42857122 1.25945997 0.483706504
-6.42857122 1.82007706 0.807378888
-6.42857122 2.30114794 1.24053705
-6.42857122 2.68164778 1.76425004
-6.42857122 2.94494653 2.35562897
-6.42857122 3.07953715 2.98882771
-6.42857122 3.07953715 3.63617229
-6.42857122 2.94494653 4.26937103
-6.42857122 2.68164778 4.8607502
-6.42857122 2.30114794 5.38446283
-6.42857122 1.82007706 5.81762123
-6.42857122 1.25945997 6.14129353
-6.42857122 0.64379853 6.34133387
-6.42857122 0.0 6.40899992
-5.71428585 0.0 0.216000006
-5.71428585 0.64379853 0.283665955
-5.71428585 1.25945997 0.483706504
-5.71428585 1.82007706 0.807378888
-5.71428585 2.30114794 1.24053705
-5.71428585 2.68164778 1.76425004
-5.71428585 2.94494653 2.35562897
-5.71428585 3.07953715 2.98882771
-5.71428585 3.07953715 3.63617229
-5.71428585 2.94494653 4.26937103
-5.71428585 2.68164778 4.8607502
-5.71428585 2.30114794 5.38446283
-5.71428585 1.82007706 5.81762123
-5.71428585 1.25945997 6.14129353
-5.71428585 0.64379853 6.34133387
-5.71428585 0.0 6.40899992
-5.0 0.0 0.216000006
-5.0 0.64379853 0.283665955
-5.0 1.25945997 0.483706504
-5.0 1.82007706 0.807378888
-5.0 2.30114794 1.24053705
-5.0 2.68164778 1.76425004
-5.0 2.94494653 2.35562897
-5.0 3.07953715 2.98882771
-5.0 3.07953715 3.63617229
-5.0 2.94494653 4.26937103
-5.0 2.68164778 4.8607502
-5.0 2.30114794 5.38446283
-5.0 1.82007706 5.81762123
-5.0 1.25945997 6.14129353
-5.0 0.64379853 6.34133387
-5.0 0.0 6.40899992
-4.28571415 0.0 0.216000006
-4.28571415 0.64379853 0.283665955
-4.28571415 1.25945997 0.483706504
-4.28571415 1.82007706 0.807378888
-4.28571415 2.30114794 1.24053705
-4.28571415 2.68164778 1.76425004
-4.28571415 2.94494653 2.35562897
-4.28571415 3.07953715 2.98882771
-4.28571415 3.07953715 3.63617229
-4.28571415 2.94494653 4.26937103
-4.28571415 2.68164778 4.8607502
-4.28571415 2.30114794 5.38446283
-4.28571415 1.82007706 5.81762123
-4.28571415 1.25945997 6.14129353
-4.28571415 0.64379853 6.34133387
-4.28571415 0.0 6.40899992
-3.57142854 0.0 0.216000006
-3.57142854 0.64379853 0.283665955
-3.57142854 1.25945997 0.483706504
-3.57142854 1.82007706 0.807378888
-3.57142854 2.30114794 1.24053705
-3.57142854 2.68164778 1.76425004
-3.57142854 2.94494653 2.35562897
-3.57142854 3.07953715 2.98882771
-3.57142854 3.07953715 3.63617229
-3.57142854 2.94494653 4.26937103
-3.57142854 2.68164778 4.8607502
-3.57142854 2.30114794 5.38446283
-3.57142854 1.82007706 5.81762123
-3.57142854 1.25945997 6.14129353
-3.57142854 0.64379853 6.34133387
-3.57142854 0.0 6.40899992
-2.85714293 0.0 0.216000006
-2.85714293 0.64379853 0.283665955
[...]
POINT_DATA 1161
VECTORS [1]-DISP double
7.235427142556098 -6.641460771413885e-14 -17.54319320450264
7.178175199038571 -0.0031240380079734557 -17.540516772862052
7.021249968704299 -0.022521760385607586 -17.545671610844398
6.786790636234851 -0.05766497492950701 -17.574378638937322
6.491197996591126 -0.10422885966621308 -17.63051035050106
6.150419654174901 -0.15588793387934882 -17.713425240009013
5.780767392499039 -0.20264406161812434 -17.81951575856025
5.397323141361902 -0.23119876271915774 -17.941786942504834
5.011839665921109 -0.22864302389444768 -18.068604056524915
4.634840918960961 -0.19692201922392225 -18.185500930272365
4.278611746527977 -0.14963755068469298 -18.281508943019695
3.9570660624247247 -0.09906422385015674 -18.351048185955236
3.6837380954420835 -0.05405718898470492 -18.392532729402227
3.471421934299626 -0.020735652563414878 -18.40777510465409
3.33255847275409 -0.0028191553337492776 -18.403626425609758
3.282884145116455 -7.764261983440475e-16 -18.39767778041265
6.8649353903915085 1.7771282065608745e-16 -16.49376475637665
6.813467278451189 -0.0021881582631228585 -16.498263956052675
6.667589382389975 -0.014204188660147814 -16.51741471284496
6.442938101155842 -0.037638908043684166 -16.559137424072226
6.1547816758173735 -0.06991729003929537 -16.625864559639414
5.8191738172717065 -0.10504906178785964 -16.716850084662255
5.452180750203162 -0.1357774308428737 -16.827906008084963
5.068933091605234 -0.15337638938443193 -16.951659505637817
4.6832888298886735 -0.15226115758254247 -17.07799630574774
4.30780443147336 -0.13263965328377655 -17.195764504272923
3.9555726441180306 -0.10146721935036201 -17.295879428712315
3.6399215656914783 -0.06678397200202195 -17.372603955899812
3.374184661188156 -0.035589818730844595 -17.42413637623761
3.170934901901204 -0.013269228215411962 -17.45213835880611
3.0414672364830615 -0.0020782292873111293 -17.461714426943036
2.996557858473469 5.192186228932525e-17 -17.46277039250469
6.497319170679754 3.326094574223912e-17 -15.44763845609752
6.450314056346087 -0.0007201509865862791 -15.45749969670975
6.313745851837633 -0.006545538101347075 -15.48850361880413
6.098255174576231 -0.019389976080063636 -15.542595523201868
5.817609014618575 -0.037815732595815395 -15.620213786262614
5.487219723806957 -0.05805737539403353 -15.719251399813386
5.1229444038517356 -0.07522698764453137 -15.835045050468377
4.740675515364276 -0.08479886263374063 -15.960651738741202
4.3554033282041935 -0.0843568848427235 -16.08747656359272
3.9815633973383435 -0.07388294406002849 -16.20669035076363
3.6330220959393618 -0.05641559799429094 -16.31087504157121
3.3234072712959155 -0.03645995793251114 -16.3949141658483
3.0654806930386362 -0.01854853945249293 -16.456540203797413
2.87076536488665 -0.006252181846216573 -16.496455730507645
2.7491100845078553 -0.0006701700558930793 -16.517449427455396
2.707617672609171 1.501107086196899e-16 -16.523703636290513
6.127216413298941 -1.0169872389969765e-16 -14.39793737570869
6.0839957161814935 -0.0003567853501648058 -14.412390968834822
5.9564059021883775 -0.0013598832052666104 -14.454727690727136
5.751291403714907 -0.0036004118861074127 -14.52285340847016
5.4796778985692445 -0.0069194858939151125 -14.613453563064748
5.155396670189662 -0.010378309720450304 -14.722095078950057
4.79412100990113 -0.013138576840169698 -14.843143376233296
4.412365117630238 -0.014688098173555757 -14.970093812582457
4.02704933614802 -0.014902898113626944 -15.09669172136075
3.6545882912123795 -0.01372228217655667 -15.216996207688636
3.3102455419790466 -0.011111972027869805 -15.325691094699737
3.0077664802497903 -0.007499519902552608 -15.418376645956084
2.758947999531691 -0.003975238511469626 -15.49200936384772
2.573768008032361 -0.0015006521315981834 -15.54504797116925
2.459677100201823 -0.0003714169647322946 -15.577090273942483
2.4210882598479793 -8.988801741290134e-19 -15.587857711486054
5.757229648406451 5.68109524460814e-18 -13.347346710730244
5.716671587157606 0.0002907084202450337 -13.365313941104834
5.596679719630117 0.0032650846980803536 -13.417677157181044
5.401798818888946 0.01066743915395759 -13.499678725272382
5.139997411230305 0.022353909211188284 -13.60436883813627
4.8226869764163585 0.03604013053859511 -13.723924944668266
4.464706895641035 0.0480965362490665 -13.850942402751212
4.083615654524621 0.05461938667540021 -13.979709400799573
3.698485132840774 0.053433669183311355 -14.106335223820839
3.3278480543265427 0.04514945882649648 -14.227962461029675
2.98841195502309 0.03272151494664902 -14.34177481884623
2.6938394060110022 0.019682685133431802 -14.444042661631961
2.4548263341362033 0.009136799927308127 -14.530459570199406
2.2789693619096627 0.0026803972951662015 -14.59635072765088
2.1714907688676375 0.00018186345234468676 -14.637738823130615
2.1353846452932514 -1.3988732271051944e-17 -14.65179867526742
5.382214715821486 5.826929446963967e-18 -12.289536046270014
5.345283361886663 0.0005661388297461517 -12.31206014023329
5.2339767640656785 0.007600584265102486 -12.376042228182666
5.049881227633701 0.024370431298841554 -12.473003367779617
4.798261280650981 0.05037914076889431 -12.592569759513006
4.488574777839512 0.08160822608362187 -12.724216946047001
4.134661863748065 0.11070950207416579 -12.858817760655539
3.7544329703981565 0.12795419935484043 -12.990028236185598
3.3694116005022003 0.12492370187664396 -13.116472315932334
3.00135957925587 0.1040513413233576 -13.239882840660545
2.66778081165273 0.07484493046291402 -13.359713235060118
2.3818189862953427 0.04546346828827739 -13.47227178057611
2.152986431936185 0.021636790414090723 -13.571689457629436
1.9870988612678595 0.006607179148008558 -13.650949767359696
1.886975612749498 0.0004632961599871507 -13.702724941044693
1.8536488812572576 -2.491937927423615e-18 -13.72086427558605
5.000534996449219 -6.181923763229834e-19 -11.220308846493205
4.967766361663605 0.0008008218633489906 -11.248717719437805
4.866913045136095 0.012091305490792794 -11.327094101288859
4.69464288889711 0.03842309560273406 -11.441282579788883
4.453635481688557 0.07866174978348936 -11.577286177482133
4.1522423688084436 0.12814847670476448 -11.722789670065179
3.803348288330941 0.17660982166612924 -11.866804707215254
3.424225701126712 0.207369478678206 -12.001416911791598
3.03934445610809 0.2014774348161061 -12.127370615484658
2.675041502390942 0.1645102936475835 -12.253408784833022
2.348732690806736 0.11685539718132341 -12.3803582104567
2.072477713703268 0.07073588004284122 -12.50384384629166
1.8546922171208324 0.03388393622124 -12.616937576132573
1.7000195106768679 0.010301905558291705 -12.710868738152564
1.6090614974351112 0.0004837013585012125 -12.77500106604599
1.5793500471898887 -4.901127795328164e-19 -12.798131884957781
4.6076445880971555 -1.4871027856279647e-19 -10.133599460508414
4.5804266962184155 0.0009293968590043777 -10.169242057817623
4.491938923171855 0.016504861993410683 -10.26543697428153
4.333590677750509 0.053224664569540836 -10.400875155798117
4.1051501698629576 0.10960754246629888 -10.557275762359339
3.813290253762294 0.17906034746467286 -10.719909816869235
3.469952662156153 0.24904310571666075 -10.875679355843397
3.0920350119759528 0.294793907525687 -11.014301523888324
2.707686191241136 0.28492887217189644 -11.139558046426178
2.3485107687114173 0.22911906659458592 -11.26878036620826
2.031266681996373 0.16092244518045254 -11.404085012372098
1.7668053830079384 0.09706068900347448 -11.540114506870559
1.5624271868704913 0.04622751187070311 -11.66877135825833
1.4213971868587287 0.013735257009190403 -11.779570725318997
1.3415190510474975 0.00038315138651584 -11.857885220937195
1.3161403398860338 5.424592572135182e-19 -11.886886941745106
4.198255527033433 3.544053041287026e-20 -9.023187321716945
4.177452189347955 0.0013252175635625324 -9.067558202992057
4.104295496468949 0.021737202499610832 -9.18519851162398
3.9631400101097447 0.06996500025615078 -9.347260621492982
3.7502609605028097 0.14492646387113634 -9.530015538508248
3.470437279330552 0.23850347622754917 -9.715284487948026
3.133952108604604 0.3337528882580678 -9.886113978050371
2.7574448822369884 0.39492291744710234 -10.02946675132481
2.373841122967736 0.3790370879062889 -10.153580029526866
2.0214767857030127 0.30184535089148057 -10.28648811742239
1.7161376646660766 0.2100427960219882 -10.431852187330817
1.466765089607338 0.12561784080568802 -10.583122873722965
1.2794224890422325 0.059191826085060295 -10.730813251964863
1.1553301220952317 0.017099752126307294 -10.86197263275314
1.088245489081532 0.00011487057042546797 -10.957344880799821
1.068019132593863 0.0 -10.993221601439297
3.764099715891622 0.0 -7.883302252853079
3.7505901368476042 0.0027164857933332834 -7.936793707192999
3.6954817275805625 0.02816074145800046 -8.078733687325608
3.5764727179620612 0.0887865293181836 -8.272853082181138
3.384735933116475 0.1849406019752059 -8.489483825791426
3.1214345255159133 0.30723670661026337 -8.705432627646964
2.7944936596214855 0.432445584328888 -8.8974461171372
2.419721226577416 0.511593325099941 -9.047354227128876
2.037585686522669 0.48821439062113076 -9.17000276583611
1.6946819479324962 0.3848355539056485 -9.307981693396174
1.405608603311735 0.2650757194074466 -9.466717671043941
1.1767079095477928 0.15636084657666763 -9.6379473058158
1.0120390803213848 0.0717571831536107 -9.81056772621385
0.9090613176320247 0.019368189073888608 -9.968158647743282
0.8579165245607753 -0.0007063111430095444 -10.085056941050226
0.8436167597070539 0.0 -10.129609164867462
3.565283727769483 0.0 -7.381016750705156
3.555472564527199 0.0036550632533007017 -7.438948092940496
3.509833168550684 0.03167684078239788 -7.592607117506679
3.4030848458470486 0.09831923852250407 -7.80343428001491
3.223908090501796 0.20455646752604076 -8.037946524133822
2.969529081717749 0.3398762544421866 -8.270603368423957
2.6475695169855125 0.4800514191611627 -8.473978470606404
2.2736610590338198 0.5682620129383961 -8.627454127772715
1.892272419650674 0.5406282889324452 -8.749287111317708
1.5546040384970916 0.4245639731038464 -8.889886054661247
1.2745223595784432 0.2906587365608228 -9.055929229185885
1.0567838466390287 0.17019011453082014 -9.238079937178759
0.9039635510986103 0.07704315968109304 -9.424241625146188
0.8120255727220929 0.020082876286064755 -9.595868318302385
0.7690780424390006 -0.0011613631599796048 -9.724019471593051
0.7573077267054132 0.0 -9.77298467852777
3.348974487479027 0.0 -6.861267026122697
3.3443549844417704 0.004377080523280335 -6.924576461975847
3.3117333646490157 0.034937987063517806 -7.09320629725322
3.2224568961282007 0.10853993529323352 -7.32518429063218
3.0598387877847935 0.227068141094667 -7.582838068038997
2.817105815741998 0.37809076696335153 -7.834193965043409
2.4998664686511503 0.5323568116725066 -8.05088686425666
2.1265990463032525 0.6294160653952181 -8.2082091687693
1.7460555355760705 0.597702391931432 -8.329158556866624
1.4147372222594383 0.46776072165573457 -8.472819207529183
1.1452771857740154 0.3182523882465909 -8.647593342139727
0.9405442557923533 0.184475596725174 -8.842422194250144
0.8014538264783205 0.08216839529376495 -9.04440420094895
0.7218690743638916 0.0206378997885172 -9.232134770796952
0.687042122168527 -0.0017202641714547068 -9.372989313358833
0.6788422762076386 0.0 -9.427029727466538
3.099657529349385 0.0 -6.311416267721866
3.10141084037824 0.004245153744057038 -6.379931321409106
3.0865736788950877 0.03627146921385263 -6.565741419923249
3.024436265552469 0.1179943546555555 -6.8267447351239925
2.8899830572508183 0.25375789759170597 -7.121099539476872
2.6648047291174635 0.42593133113336734 -7.399957713141789
2.3525327527827806 0.5955271205786917 -7.628719500884398
1.978177327678434 0.6970040658233325 -7.78977616627162
1.5992431956960171 0.6594479202979959 -7.910004716470031
1.2753253984191057 0.5143714449569715 -8.056887885413117
1.0188415927365488 0.34713357878426054 -8.242538250107204
0.8293288400186849 0.19896658699702766 -8.452736127083181
0.7058235390657989 0.08697687487917495 -8.673030380419753
0.6390106293273357 0.020871135473506386 -8.878879275764527
0.6129777265025625 -0.0022244467631424092 -9.033221719147479
0.6074459268960921 0.0 -9.092371205891356
2.7897784147285867 0.0 -5.714527641103725
2.7979313240078034 0.0020104288949270555 -5.785957878431687
2.8031302440940804 0.03315277501644801 -5.985175733190165
2.777434443171553 0.12056513869971201 -6.278496748651421
2.6912230034366598 0.27831695508205384 -6.625992273121611
2.5056545558837775 0.4900634504515692 -6.962162826101072
2.2050586713196276 0.688622495964361 -7.215667554053476
1.8268316514298015 0.7874779920250761 -7.373070730330117
1.4496497821472003 0.7313650831116054 -7.490551068457632
1.1367912705708034 0.5650787221845368 -7.642743852616925
0.8961673921406726 0.37701851216258603 -7.8422956854847214
0.7248613205049633 0.21260048864754327 -8.071539614963053
0.6183426557968694 0.0909502589050046 -8.313087523656217
0.5645726029123717 0.021066800394214085 -8.537744419608154
0.5460238193552936 -0.0026260990924491237 -8.705714428228331
0.5437835175236834 0.0 -8.76997288769265
2.393487050660311 0.0 -5.067852291519515
2.404672346055042 0.0006145020365194734 -5.138161610458854
2.4215955374467337 0.026644070625176104 -5.337926898875869
2.4273943859427263 0.10980619779102425 -5.648368552379404
2.4043013540215252 0.27783411782195355 -6.046323272239628
2.2938009979161227 0.5358228663595391 -6.466770429029897
2.0338259866947648 0.8135014208732787 -6.792691139953661
1.658681538121439 0.932586598167825 -6.952989707722959
1.2914003171712334 0.8284373247902987 -7.06509243273074
0.9987295199836296 0.6221692878218267 -7.229082896663413
0.779026561107461 0.407285906774003 -7.448732572400583
0.6293961772914151 0.22493565454468267 -7.701849418561373
0.5399118579778637 0.09432153034787245 -7.966653863003936
0.4978276414572836 0.021217220986065616 -8.210096546113824
0.4862934021892369 -0.0028292225461969836 -8.390240777633112
0.48597521220163686 0.0 -8.458965036679018
1.906643764836108 0.0 -4.391249065424213
1.9142684557869685 0.0009799744667025358 -4.457437801289217
1.9225692808807948 0.02663067293674437 -4.6465055484388325
1.9317763633297507 0.09999744923813006 -4.947825373880927
1.9494826278495807 0.25380440928450987 -5.357164592660798
1.9409256921329774 0.5268374318421966 -5.850825960291838
1.8050851129525685 0.8906128298820276 -6.303118220007849
1.456066105461022 1.109074361318107 -6.51493842486411
1.115116604061367 0.9586407062990069 -6.618893006422865
0.8591355679198183 0.6866094549976695 -6.814827647650639
0.6700612983398782 0.43624928100241683 -7.065258073872711
0.5433781953874403 0.2354583939368342 -7.346904757303144
0.47046313586017063 0.09673292841059286 -7.635287546721198
0.43829978798752345 0.021371861808025337 -7.895917661299345
0.4317831639163562 -0.002886341306226436 -8.085909119551603
0.4330644719318779 0.0 -8.157578553181596
1.3784617934819396 0.0 -3.712454651567668
1.3843876426323796 0.0003794844090466085 -3.7784059243000163
1.380591798892373 0.026776306892247713 -3.9635335221596746
1.3737959851213117 0.10108915364279625 -4.2530430375894195
1.388161040849801 0.24509756834443688 -4.649727651622217
1.4639104176920654 0.49610636098178673 -5.16682289714446
1.502038108386173 0.9038418631880226 -5.744514180390656
1.2411185903384563 1.2499007477184563 -6.052923421169942
0.9285865928675822 1.0932625524745416 -6.154390637417029
0.7245022966920979 0.7488458028761564 -6.404201194975984
0.5706530180653226 0.4619815641439537 -6.6961624261879775
0.4670206743813953 0.24418842956056905 -7.008509669820366
0.40836543893120003 0.09889410015623787 -7.319157748071296
0.3841681200353366 0.02157206196113302 -7.593631888692633
0.3812650816803853 -0.0028626318070189348 -7.790582873774422
0.38352882320791803 0.0 -7.864248698846394
0.9807503529950883 0.0 -3.081943167535357
0.9827794411262417 -0.00278579021852397 -3.150984369698179
0.9820701122592229 0.02174821651991336 -3.3420527374732623
0.9672723048005184 0.10099413585273292 -3.6358207090062704
0.9782580692571922 0.24969366240760119 -4.03256621145794
1.0804323913471578 0.4893402132210228 -4.58405478374466
1.215257115119734 0.88664199118989 -5.244492610890301
1.0557706949517547 1.328227894197621 -5.6155192702733725
0.7696806987057877 1.189134564643249 -5.712961780387017
0.6053131868386465 0.7962738181711742 -6.012343127815735
0.4819753522197462 0.48245511041220185 -6.343447709287172
0.3989394981802681 0.2512892779923694 -6.686713869184137
0.3518277796498583 0.10060528813102519 -7.016745906482065
0.3340803159998632 0.022089264971300558 -7.301405743650985
0.3335513550185401 -0.0027050720677988735 -7.502034315372145
0.3362553231919481 0.0 -7.576256564709169
0.7974178156318922 0.0 -2.586951195878609
0.800268383483127 -0.009974269879551224 -2.65608069351142
0.8031151103571992 0.012045548434967553 -2.857319487633222
0.7987310123996547 0.09155144988122592 -3.163960570604795
0.8110357969894545 0.2506307503047453 -3.601249347579017
0.8934393673547173 0.49500256104317797 -4.208105719905878
1.0125209300483529 0.8737434394999786 -4.903084067455585
0.9164391103540195 1.3364361066067338 -5.266992600655484
0.6600734208561474 1.2304137651674654 -5.341383767729737
0.5087491517682199 0.8246334249949446 -5.652403555540648
0.4053080283998904 0.49612381592131827 -6.011217310985927
0.3371583957431925 0.2560981374378813 -6.379610814936708
0.29978242663284 0.10247263950278229 -6.725152950247399
0.28626776032694695 0.023007536862631857 -7.01627518769981
0.28725919622009516 -0.002136232312725159 -7.217724176124878
0.2900035188383079 0.0 -7.291475765258697
0.7265725369610582 0.0 -2.235869692539454
0.7308119900508956 -0.0126318742313175 -2.315862698827561
0.7421075184268972 0.005868353305434044 -2.5373514690260155
0.7560666158621554 0.08162861512055514 -2.883394908965071
0.7759327136925721 0.23951262292291967 -3.3843025084318055
0.8204502735835612 0.4928042928260611 -4.021018186602838
0.88571261229457 0.8635306593310994 -4.677444553403374
0.8141321403334605 1.3046991876410976 -4.992769234535787
0.58916796460906 1.2259165628494209 -5.046274257312392
0.4366625395387467 0.8347791807467121 -5.333786872679758
0.3410602607881031 0.5022317175506825 -5.702607866213833
0.28189018635299545 0.2592097424780639 -6.084450397958957
0.2502852194197694 0.10409300321870187 -6.439893433295006
0.23933874207052241 0.024398982094720773 -6.734257275120928
0.24077807368205903 -0.0014477156439939975 -6.9351799159395835
0.24353174383474122 0.0 -7.008252680930464
0.691827196124734 0.0 -1.9800154891624677
0.6993013924671894 -0.012552523372249883 -2.0724909891227523
0.715636447613804 0.0030606824018059296 -2.3305315814101912
0.7389952431031741 0.07055877897918333 -2.7386398381238433
0.7668347565392226 0.22543800204149314 -3.2947095880733768
0.7938731188632278 0.48269166048152673 -3.931755096047725
0.8125863998213062 0.8565663168864063 -4.5102882885015285
0.7419554442037765 1.2524181978699254 -4.769523878483415
0.5393695471588139 1.194053663052299 -4.807379817802962
0.38673990496421684 0.8282969644265729 -5.059804392458195
0.289855625944084 0.5017574086632551 -5.417339418667374
0.23183371922506102 0.25987030385676374 -5.799486767271238
0.20238773708168267 0.10550039510234793 -6.157127401035192
0.1921581697563544 0.02554435250125132 -6.452528796170788
0.1933886598970029 -0.0006856598697370333 -6.652751615018128
0.19591067412128035 0.0 -6.725066124310044
0.6799132830258735 0.0 -1.7870995817359911
0.6847121602963732 -0.01222509276000657 -1.8963102215191248
0.7034240436349176 0.0001445284684361583 -2.19012226439118
0.7286813097491511 0.06390633038095998 -2.644800108713743
0.7574072916791443 0.2121537677332557 -3.2274586885228977
0.7739422194724184 0.4767859986422515 -3.8486173515524427
0.7681395522607096 0.8517056079375301 -4.364019151951666